 Gaussian 09, Revision D.01,
 Gaussian 09:  EM64L-G09RevD.01 24-Apr-2013

 ----------------
 # hf/cc-pVDZ opt
 ----------------

 --------
 opt hco+
 --------
 Symbolic Z-matrix:
 Charge =  1 Multiplicity = 1

 SCF Done:  E(RHF) =  -112.978939348     A.U. after   10 cycles
 SCF Done:  E(RHF) =  -112.979839528     A.U. after    8 cycles
 SCF Done:  E(RHF) =  -112.979840416     A.U. after    7 cycles
 Optimization completed.
    -- Stationary point found.

                         Standard orientation:
 ---------------------------------------------------------------------
 Center     Atomic      Atomic             Coordinates (Angstroms)
 Number     Number       Type             X           Y           Z
 ---------------------------------------------------------------------
      1          1           0        0.000000    0.000000   -1.598843
      2          6           0        0.000000    0.000000   -0.504771
      3          8           0        0.000000    0.000000    0.578434
 ---------------------------------------------------------------------

 The electronic state is 1-SG.
 Alpha  occ. eigenvalues --  -21.04237 -11.76933  -1.90410  -1.19762  -1.09629
 Alpha  occ. eigenvalues --   -0.99376  -0.99376
 Alpha virt. eigenvalues --   -0.18206  -0.18206  -0.09573   0.04625   0.32700
 Alpha virt. eigenvalues --    0.32700   0.40694   0.58415   0.74773   0.90858
 Alpha virt. eigenvalues --    0.90858   0.95311   0.96670   0.96670   0.99130

 Mulliken charges:
               1
     1  H    0.317990
     2  C    0.517438
     3  O    0.164572
 Sum of Mulliken charges =   1.00000

 Dipole moment (field-independent basis, Debye):
    X=              0.0000    Y=              0.0000    Z=             -4.1303  Tot=              4.1303
 Quadrupole moment (field-independent basis, Debye-Ang):
   XX=             -8.7622   YY=             -8.7622   ZZ=             -3.5944
   XY=              0.0000   XZ=              0.0000   YZ=              0.0000

 Normal termination of Gaussian 09 at Thu Apr 22 19:18:51 2021.
